# vtk DataFile Version 3.0
Superfluid Helium Vortex Simulation
ASCII
DATASET POLYDATA
POINTS 200 float
0.22024397998776163 0.0000000009075752668404857 0.6133055958208621
0.21980937885921062 0.013829234814037503 0.6133055952871236
0.2185072916871264 0.02760389129375219 0.6133055940719242
0.21634285681724305 0.04126960805134458 0.6133055948948665
0.21332461046930715 0.05477245131172043 0.6133055901157274
0.20946447386808068 0.06805913353843275 0.6133055940931791
0.20477767561262009 0.08107721724625645 0.6133055923183182
0.1992827117599824 0.093775325471215 0.6133055943457556
0.19300127134885828 0.10610334581466634 0.6133055946110267
0.18595814451377166 0.11801262598613005 0.6133055946942103
0.178181124264823 0.12945616344959496 0.6133055931975773
0.16970090392609308 0.14038879667126924 0.6133055937477854
0.16055095383560972 0.15076738098420284 0.6133055934211595
0.15076737824917594 0.16055095143900028 0.6133055966966765
0.1403887974005795 0.16970090504782714 0.6133055943623054
0.1294561631763733 0.17818112298494346 0.6133055934794661
0.11801262633418683 0.1859581436518452 0.6133055927936091
0.10610334696764746 0.1930012711494711 0.6133055944816376
0.09377532620555779 0.19928271174708437 0.613305594914615
0.08107721739819215 0.20477767546074094 0.6133055942238316
0.0680591331297709 0.209464474670753 0.6133055952232929
0.05477245075046704 0.2133246126737904 0.6133055937420341
0.041269606688914745 0.21634285565772754 0.6133055933517788
0.027603890578078695 0.2185072923786366 0.6133055932076368
0.013829234469294497 0.21980938026973523 0.6133055931956992
0.0000000005775473165307112 0.2202439817637867 0.6133055960533075
-0.013829233320700803 0.21980938001257008 0.6133055940881044
-0.02760388982182477 0.21850729220197113 0.6133055938807318
-0.04126960586981328 0.2163428535320574 0.6133055954672867
-0.05477245023360792 0.21332461091677501 0.6133055943750932
-0.0680591329154553 0.2094644736307469 0.6133055940991112
-0.08107721680712232 0.20477767363658075 0.6133055962672881
-0.09377532621354497 0.19928271111823267 0.6133055943767384
-0.10610334748287936 0.19300127159812036 0.6133055951513569
-0.11801262741103971 0.18595814422649593 0.6133055941408075
-0.12945616440221996 0.17818112377336354 0.6133055923548721
-0.14038879748483538 0.16970090430778464 0.6133055958057745
-0.15076738106715512 0.16055095412920653 0.6133055932715608
-0.16055095264020464 0.15076738007885312 0.6133055925886451
-0.1697009050057095 0.14038879797804735 0.6133055962284489
-0.17818112326408048 0.12945616346511132 0.6133055933135994
-0.18595814381553785 0.1180126261936091 0.6133055940067464
-0.19300127186700936 0.10610334651887657 0.6133055926473435
-0.19928271369745998 0.09377532649363991 0.6133055943730114
-0.20477767435907226 0.08107721655344341 0.6133055952317583
-0.20946447316329592 0.06805913313803626 0.6133055917453025
-0.21332461043353843 0.05477245105705982 0.6133055920739091
-0.21634285683601848 0.04126960779929169 0.6133055949252227
-0.21850729186917547 0.02760389081198869 0.6133055967197976
-0.21980938153295634 0.013829234070426974 0.6133055937825959
-0.22024398037539025 -0.00000000037253874180201127 0.6133055939546413
-0.21980938218619092 -0.013829234547639825 0.6133055951519514
-0.2185072915334402 -0.02760389037013888 0.6133055944645395
-0.216342857778668 -0.04126960700650918 0.6133055928427883
-0.21332461128897423 -0.05477245025180563 0.6133055942445613
-0.2094644759583296 -0.06805913347191815 0.6133055929749952
-0.20477767440850614 -0.0810772165790919 0.6133055951972822
-0.19928271369004 -0.09377532675462613 0.613305592966044
-0.19300127170818707 -0.10610334678051735 0.6133055942440325
-0.18595814469806773 -0.1180126268310401 0.6133055956196009
-0.17818112467344432 -0.12945616409800603 0.6133055938008093
-0.16970090566162688 -0.14038879764044893 0.6133055943525881
-0.1605509542602518 -0.15076738026064668 0.6133055938162176
-0.15076737908478535 -0.16055095060911076 0.61330559293445
-0.1403887980316363 -0.1697009041813919 0.6133055959669578
-0.12945616401674903 -0.1781811236914417 0.6133055935095492
-0.11801262563887462 -0.185958143522617 0.6133055964556747
-0.10610334604339454 -0.19300127228626945 0.6133055962935487
-0.09377532468280864 -0.19928271144589593 0.6133055943143154
-0.08107721596937119 -0.20477767363667979 0.6133055955414387
-0.06805913294047365 -0.20946447309208885 0.6133055912055667
-0.054772451412784584 -0.213324612491924 0.6133055945049304
-0.041269607109121205 -0.21634285489871555 0.6133055968617304
-0.027603890673416974 -0.21850729319766726 0.6133055965305801
-0.013829234023937414 -0.21980938102109665 0.6133055948648477
0.0000000001510696338728739 -0.2202439798554166 0.6133055933249055
0.013829234068057413 -0.21980937863746686 0.613305596001702
0.02760389058694868 -0.21850729151596304 0.6133055932308372
0.041269607385051324 -0.2163428564580608 0.6133055956059305
0.05477245080299357 -0.21332461005233203 0.6133055930634475
0.06805913372618433 -0.20946447530905907 0.6133055937850402
0.08107721630032196 -0.20477767417237525 0.6133055958201599
0.09377532538023226 -0.1992827120201678 0.6133055941627665
0.10610334690436386 -0.19300127303056017 0.6133055944571947
0.11801262602799374 -0.18595814355533882 0.6133055944878013
0.1294561650399424 -0.1781811249411019 0.613305595988723
0.1403887961431462 -0.1697009026122104 0.6133055951642847
0.15076737898078169 -0.16055095121950122 0.6133055969456361
0.1605509534134217 -0.15076738029883727 0.6133055950255812
0.16970090283496264 -0.1403887957299844 0.613305592753248
0.17818112399544428 -0.12945616400250246 0.613305595745098
0.1859581430126177 -0.11801262589395255 0.6133055949408823
0.1930012734165138 -0.1061033478167956 0.6133055941425065
0.1992827108389693 -0.09377532575517594 0.6133055941334012
0.2047776738988183 -0.08107721706035881 0.613305596862108
0.20946447140916583 -0.06805913301219721 0.6133055950868552
0.2133246113553155 -0.05477245096463406 0.6133055948394518
0.21634285598912686 -0.04126960673497801 0.6133055939131348
0.21850729229179702 -0.027603889683019234 0.6133055945694118
0.2198093807577676 -0.013829233149772198 0.6133055941602303
0.23285733212817156 -0.0000000005680064959705117 0.8360283813498817
0.23239784241165462 0.01462123214950265 0.8360283802354344
0.23102118389176565 0.029184761856771466 0.8360283805472706
0.2287327897611667 0.04363311279137501 0.8360283800982737
0.2255416922028458 0.05790926406303263 0.8360283784918784
0.22146048523265702 0.07195687423644989 0.836028378672336
0.21650527144535445 0.08572050186490604 0.8360283810942704
0.21069561313799415 0.09914583052963755 0.8360283820692253
0.20405443554123387 0.11217987531764678 0.8360283787402345
0.19660794806476772 0.12477119751016846 0.8360283792861338
0.18838554007325836 0.13687010581179446 0.8360283784910467
0.17941965914900204 0.1484288500891871 0.8360283795939276
0.1697456917773829 0.15940181517002147 0.8360283815941401
0.15940181354434288 0.16974569170845027 0.8360283775725348
0.14842885010276166 0.17941966046842123 0.8360283800234096
0.13687010613362857 0.18838554082601658 0.8360283800954745
0.12477119786197216 0.19660794852354865 0.8360283771720494
0.1121798764981191 0.2040544369381556 0.8360283800313069
0.09914583043231842 0.21069561280680354 0.8360283813027721
0.0857205033870028 0.21650527591722524 0.8360283759506099
0.07195687361638059 0.22146048450014497 0.8360283781482066
0.05790926420056632 0.22554169309956357 0.836028380158878
0.04363311332503871 0.2287327889942722 0.8360283791247662
0.029184762974987673 0.23102118424500467 0.8360283804758851
0.014621233331064567 0.23239784104124395 0.8360283787932123
0.00000000023869448742651494 0.23285733370946407 0.8360283802933075
-0.014621232961830335 0.2323978406977229 0.836028380964868
-0.02918476311342987 0.2310211850894237 0.83602837948765
-0.04363311352715488 0.22873278863702337 0.8360283801931105
-0.05790926415357894 0.225541691554276 0.8360283796682003
-0.07195687327259324 0.2214604845365093 0.8360283780000946
-0.08572050128984175 0.21650527285376975 0.8360283791328831
-0.09914582990082457 0.21069561477573706 0.8360283781535003
-0.11217987449620494 0.20405443536441353 0.8360283791290999
-0.12477119709593495 0.19660794787981892 0.8360283796044015
-0.13687010515398662 0.18838553869216662 0.8360283799239354
-0.14842885049669194 0.17941965900649434 0.8360283805416223
-0.15940181312992183 0.16974568971631454 0.8360283797539342
-0.16974569065709458 0.15940181291022387 0.8360283799030568
-0.1794196605894616 0.148428851118817 0.8360283786399798
-0.18838554038710195 0.13687010627746407 0.8360283786828643
-0.19660795022406546 0.124771199306603 0.8360283795696045
-0.20405443667247836 0.11217987647262076 0.8360283794341088
-0.21069561400400147 0.09914583110760682 0.8360283796498452
-0.21650527375247627 0.08572050291380086 0.8360283800843863
-0.2214604838926265 0.07195687376815094 0.8360283798442637
-0.2255416910836522 0.05790926381682664 0.8360283804943608
-0.22873278680074147 0.04363311230248749 0.8360283799846346
-0.23102118321242565 0.029184761723944887 0.8360283793481642
-0.23239784358955076 0.014621232069801876 0.8360283787802334
-0.23285733391169836 -0.0000000007623695257388078 0.8360283789410893
-0.23239784123079904 -0.014621233015891735 0.8360283800875558
-0.23102118430954496 -0.029184762541267433 0.8360283781108511
-0.2287327906385192 -0.043633113170441995 0.8360283799683597
-0.22554169052756323 -0.05790926359790952 0.8360283798015494
-0.2214604852628178 -0.07195687366799498 0.8360283793799841
-0.21650527179496623 -0.08572050096253021 0.8360283799721239
-0.21069561368348202 -0.09914582953454835 0.8360283783848431
-0.20405443532655382 -0.11217987433457946 0.8360283804661339
-0.19660794946302207 -0.1247711982967184 0.8360283803228088
-0.1883855391989491 -0.13687010595358975 0.8360283794209686
-0.17941965963420536 -0.14842885178660814 0.8360283796524193
-0.16974568936939588 -0.15940181320582233 0.8360283804322896
-0.15940181112672916 -0.16974568824126413 0.836028375982818
-0.1484288504773127 -0.17941965842296853 0.8360283799133472
-0.1368701070551416 -0.18838553956081022 0.8360283797119439
-0.12477119888815187 -0.19660794875441803 0.836028380785087
-0.11217987561225824 -0.20405443629649195 0.8360283815449727
-0.09914582965744695 -0.21069561438655945 0.8360283798513142
-0.08572050106659458 -0.21650527374018103 0.836028379425088
-0.07195687263675672 -0.22146048404653673 0.8360283802616914
-0.05790926416825078 -0.22554169269726257 0.8360283785375988
-0.04363311348676493 -0.22873278891722307 0.8360283776637525
-0.029184763118698324 -0.2310211846445345 0.836028380696442
-0.014621233019450437 -0.2323978424717269 0.8360283806861609
0.0000000003878043334852949 -0.2328573312946656 0.8360283811317687
0.014621233847423448 -0.23239784244679063 0.8360283774766308
0.02918476357910738 -0.2310211839966439 0.8360283785378996
0.04363311389603671 -0.2287327892718745 0.8360283795286465
0.0579092642704771 -0.2255416923031802 0.8360283784843426
0.0719568727775481 -0.22146048415546757 0.836028378684664
0.08572050081140048 -0.21650527309334167 0.8360283801411535
0.09914582994479657 -0.21069561603912926 0.8360283790517677
0.11217987488683356 -0.20405443658871822 0.8360283795532215
0.1247711980590046 -0.196607949414481 0.8360283790143096
0.13687010502827673 -0.1883855384216932 0.8360283824191228
0.14842884897343947 -0.17941965722366987 0.8360283794458796
0.1594018138379456 -0.16974569037459514 0.8360283801876937
0.16974569036189427 -0.1594018127040304 0.8360283809769451
0.17941965765713183 -0.14842884863748634 0.8360283793841666
0.18838554108684188 -0.13687010640820266 0.836028377306193
0.1966079509667715 -0.12477119897179674 0.8360283784138414
0.20405443608708454 -0.11217987500219728 0.8360283788754755
0.21069561411475796 -0.09914583009736638 0.8360283797702386
0.21650527501576305 -0.08572050255926758 0.8360283798394837
0.22146048290107562 -0.07195687309087567 0.8360283777004628
0.22554168991208387 -0.057909263502854545 0.8360283798771257
0.22873279097168406 -0.043633113539132865 0.8360283811926915
0.231021184404437 -0.02918476262524486 0.8360283773675862
0.23239784232665048 -0.014621233131340684 0.8360283798077033
LINES 2 202
100 0 1 2 3 4 5 6 7 8 9 10 11 12 13 14 15 16 17 18 19 20 21 22 23 24 25 26 27 28 29 30 31 32 33 34 35 36 37 38 39 40 41 42 43 44 45 46 47 48 49 50 51 52 53 54 55 56 57 58 59 60 61 62 63 64 65 66 67 68 69 70 71 72 73 74 75 76 77 78 79 80 81 82 83 84 85 86 87 88 89 90 91 92 93 94 95 96 97 98 99
100 100 101 102 103 104 105 106 107 108 109 110 111 112 113 114 115 116 117 118 119 120 121 122 123 124 125 126 127 128 129 130 131 132 133 134 135 136 137 138 139 140 141 142 143 144 145 146 147 148 149 150 151 152 153 154 155 156 157 158 159 160 161 162 163 164 165 166 167 168 169 170 171 172 173 174 175 176 177 178 179 180 181 182 183 184 185 186 187 188 189 190 191 192 193 194 195 196 197 198 199
POINT_DATA 200
VECTORS tangent float
-0.00000006864288292399981 0.9999999999999969 0.000000040743154930309646
-0.06279047350800286 0.9980267313236838 -0.00000006323336075619327
-0.12533311778332848 0.9921147159410096 -0.000000014182170684450914
-0.1873813569651654 0.9822872426443667 -0.0000001430374542409933
-0.2486899512422818 0.9685831446763415 -0.000000028985242272704754
-0.309016938772385 0.9510565343615162 0.00000007963531611213187
-0.36812459776449324 0.9297764680398886 0.000000009131978050270962
-0.42577935261496497 0.9048270237381146 0.00000008289355158358167
-0.4817536333312498 0.8763067024576153 0.00000001259848213200001
-0.5358267527311212 0.844327952313329 -0.0000000511036789718599
-0.5877852752705921 0.8090169776803656 -0.00000003421826969660829
-0.6374239474263648 0.7705132777878595 0.0000000080836818763124
-0.6845471462380248 0.7289685895684155 0.00000010661801942926567
-0.728968646923692 0.6845470851608679 0.00000003402740192796983
-0.7705132217930973 0.6374240151123958 -0.00000011631918367835924
-0.8090170165475375 0.5877852217745171 -0.00000005671667345458557
-0.84432791983478 0.5358268039091288 0.00000003623380298059982
-0.8763066862571137 0.4817536627998489 0.00000007668559060097441
-0.9048270296377501 0.4257793400776113 -0.000000009321051241406346
-0.9297764635474814 0.3681246091110166 0.00000001116033812532778
-0.9510565117856479 0.3090170082537781 -0.000000017419528829752193
-0.9685831638976873 0.24868987638008386 -0.0000000676651380351474
-0.9822872529089819 0.18738130315622656 -0.000000019321291101188103
-0.9921147038088279 0.12533321381948878 -0.000000005643103476472148
-0.998026728811491 0.06279051343812948 0.00000010288605769055646
-0.9999999999999993 -0.00000000929788129401967 0.000000032265169442971764
-0.9980267284680708 -0.06279051889667253 -0.00000007855010876431293
-0.9921146955956686 -0.12533327883332257 0.000000049864740320116045
-0.9822872426959339 -0.18738135669489375 0.00000001787378238277894
-0.9685831747050572 -0.24868983428815533 -0.00000004946678342245294
-0.9510565108159662 -0.3090170112381441 0.00000006841285674526924
-0.9297764697247146 -0.36812459350910887 0.000000010037690352847103
-0.9048270685471399 -0.4257792573909489 -0.000000040346819983055205
-0.876306713595749 -0.4817536130710572 -0.00000000853014817794567
-0.8443279327690348 -0.535826783527996 -0.00000010110772343922749
-0.8090169815453238 -0.5877852699509317 0.0000000601973673521232
-0.7705132789527561 -0.6374239460182455 0.000000033143145264024925
-0.7289686222605108 -0.6845471114244798 -0.00000011631625315127969
-0.6845470878795208 -0.7289686443707001 0.0000001069071557158863
-0.6374239679570329 -0.7705132608034145 0.00000002621093111156978
-0.5877852142995409 -0.8090170219784232 -0.0000000803263019431006
-0.5358268031452645 -0.8443279203195434 -0.000000024088674149769798
-0.4817537189483873 -0.8763066553891955 0.000000013242414785012606
-0.42577928071208 -0.9048270575730454 0.00000009344027367333339
-0.3681244975713595 -0.9297765077091511 -0.00000009500558281994273
-0.30901698325284344 -0.9510565199089374 -0.00000011417296516475718
-0.24868997707678903 -0.9685831380431589 0.00000011497094713801765
-0.1873813630525856 -0.9822872414831249 0.00000016797345572673733
-0.1253332100567774 -0.9921147042841679 -0.000000041312007713305866
-0.0627904791026413 -0.9980267309716963 -0.00000009997502886626556
-0.00000002361788667918091 -0.9999999999999984 0.000000049509448146804906
0.06279049388264546 -0.9980267300418227 0.000000018435516049328408
0.1253332054668187 -0.9921147048640119 -0.00000008348846773043186
0.18738132391600557 -0.9822872489488422 -0.000000007953374400384747
0.24868990443329653 -0.9685831566948487 0.0000000047799795345066215
0.3090170007823567 -0.9510565142132595 0.00000003444590265361235
0.3681245860660497 -0.9297764726716308 -0.0000000003236322768773436
0.4257792835894728 -0.9048270562190512 -0.000000034465021727853626
0.4817536884938487 -0.876306672131716 0.00000009594012277749509
0.5358267566530299 -0.8443279498244117 -0.000000016024865907464337
0.5877852364256355 -0.8090170059028782 -0.00000004580921568087857
0.6374239714451057 -0.7705132579178304 0.0000000005570930884523217
0.684547195986808 -0.7289685428511958 -0.00000005127320040942857
0.728968646004321 -0.6845470861398951 0.00000007776063785572344
0.7705131944407678 -0.6374240481756891 0.000000020792878912416536
0.8090170204409721 -0.5877852164156663 0.000000017669703668475212
0.8443279311141274 -0.5358267861357131 0.0000001006563153837146
0.8763066958249763 -0.48175364539597065 -0.00000007742147142349174
0.904827074186959 -0.425779245405723 -0.000000027192759159069657
0.9297764728228449 -0.36812458568410905 -0.00000011239772330375847
0.9510564871163478 -0.30901708417806034 -0.00000003747526281802539
0.9685831553964394 -0.24868990949018263 0.0000002045002538921016
0.9822872469679503 -0.18738133430019022 0.0000000732379585439884
0.9921146975101875 -0.12533326367833736 -0.00000007219787534494648
0.9980267351084902 -0.06279041335008208 -0.00000011590210198336635
0.9999999999999954 0.00000008618083205538127 0.00000004110329876558787
0.998026731242819 0.06279047479334637 -0.0000000034010672104917505
0.9921147153683816 0.12533312231614976 -0.000000014309235191135926
0.9822872412599956 0.1873813642223453 -0.000000006052026048359021
0.9685831622636075 0.24868988274440426 -0.00000006583481848330928
0.9510565219790135 0.309016976881809 0.00000009966974694090186
0.9297764520618824 0.36812463812032187 0.000000013656804975210755
0.9048270805665118 0.425779231848479 -0.00000004927840539607138
0.876306684972019 0.48175366513743384 0.00000001175172730495496
0.8443279410645067 0.5358267704564299 0.00000005537285349187023
0.809016964449263 0.5877852934816414 0.000000024458455760844896
0.7705131665301819 0.6374240819137845 0.000000034597472867737186
0.728968692652854 0.6845470364642513 -0.00000000501486535899757
0.6845470981958054 0.7289686346830566 -0.00000015157701929950608
0.637423972694986 0.7705132568838391 0.0000000260143395589816
0.5877852801664035 0.809016974123347 0.0000000790945587004183
0.5358268366726842 0.8443278990423929 -0.000000057942164524825243
0.48175365517953306 0.8763066904464205 -0.000000029194715191593436
0.4257792102037353 0.9048270907517488 0.00000009832798671610529
0.3681245396701402 0.9297764910410707 0.00000003447240837770177
0.3090170220806234 0.9510565072930304 -0.00000007312972447543615
0.24868999967644684 0.9685831322405564 -0.00000004243620518342386
0.18738133874112223 0.9822872461207998 -0.000000009763374502327588
0.1253332132543436 0.9921147038802223 0.000000008933812207751019
0.06279045126899951 0.9980267327228431 0.000000045246550545513144
0.000000002906873336338857 0.9999999999999999 0.000000014627052427865534
-0.06279047250922605 0.9980267313865232 -0.000000027446765191118087
-0.12533322688109394 0.9921147021587636 -0.00000000469045993836616
-0.18738130928739674 0.9822872517393962 -0.00000007028792112216181
-0.24868984314686207 0.9685831724305285 -0.000000048762565136083905
-0.30901705064045054 0.9510564980133773 0.00000008899358632414731
-0.3681246345203357 0.9297764534872109 0.00000011616288512721477
-0.4257792874775987 0.9048270543894352 -0.00000008050059584867943
-0.48175368359563553 0.8763066748245315 -0.00000009517294301925529
-0.5358267641541501 0.8443279450640566 -0.000000008521435535239609
-0.5877852121016292 0.8090170235753031 0.000000010525575832053991
-0.6374239338971104 0.7705132889802231 0.00000010611599039111749
-0.6845470858950906 0.7289686462342084 -0.00000006912524949828472
-0.7289686523475303 0.684547079385065 -0.00000005371401944034819
-0.7705132481197606 0.6374239832889322 0.00000008627657296768825
-0.8090170335745425 0.5877851983388473 -0.00000009750752081914332
-0.8443279266677901 0.535826793142029 -0.0000000021943318293681675
-0.8763066897936104 0.48175365636697065 0.00000014125768153656984
-0.9048270117604312 0.42577937806881744 -0.00000013954695219693303
-0.929776460607084 0.36812461653759604 -0.0000001078761779302317
-0.9510565384656736 0.30901692614106124 0.00000014390947989874133
-0.968583170273646 0.24868985154736814 0.0000000333952552277707
-0.9822872539827266 0.18738129752745888 0.000000010840641540809807
-0.9921147043770007 0.12533320932193717 -0.000000011338096498308022
-0.9980267287968059 0.06279051367162738 -0.000000006243578067662636
-0.9999999999999971 -0.000000011747334903370943 0.00000007426376459998754
-0.9980267306894254 -0.06279048358928678 -0.000000027550943335738732
-0.992114704625544 -0.12533320735451192 -0.000000026391667326546853
-0.9822872387184309 -0.18738137754568981 0.000000006174251970695457
-0.9685831723613606 -0.24868984341624661 -0.00000007499422409727129
-0.951056516512937 -0.3090169937046783 -0.000000018306159565609903
-0.9297764823573137 -0.3681245616028082 0.000000005245991758517136
-0.9048270319772426 -0.4257793351059372 -0.00000000012937335900245778
-0.8763066502139634 -0.48175372836209596 0.00000004961623927222119
-0.8443279280392386 -0.5358267909809713 0.000000027180865423735154
-0.8090170339740672 -0.587785197788956 0.000000032049993490163
-0.7705132583533928 -0.6374239709186013 -0.000000005813505389100009
-0.7289686144670688 -0.6845471197236618 -0.00000002183692465234255
-0.6845471711675207 -0.728968566158064 -0.000000038093721940745057
-0.6374240087891069 -0.7705132270241848 -0.00000004172673105005782
-0.5877852406601984 -0.809017002826289 0.000000031790230198975705
-0.5358267947455265 -0.8443279256501792 0.00000002569019100588055
-0.48175363204296656 -0.876306703165855 0.0000000027439787531698528
-0.42577931900152116 -0.9048270395554061 0.000000022237437426963437
-0.36812455705782104 -0.9297764841568016 0.00000000664849812938512
-0.30901693164392363 -0.9510565366776963 0.000000014019832974346092
-0.2486897909919576 -0.9685831858216291 0.000000004800242708377859
-0.18738132451451328 -0.9822872488346701 -0.00000003919630298919042
-0.12533336791554414 -0.992114684341959 -0.00000004118671908956502
-0.06279055626756297 -0.998026726116896 -0.000000013920677243290576
0.00000008066186331447409 -0.9999999999999958 0.000000044706298106050324
0.06279052041346095 -0.9980267283726453 -0.00000002839152610817902
0.12533315967469305 -0.9921147106489037 -0.000000004076130229717499
0.18738138558644438 -0.9822872371845728 0.00000005781654542195687
0.24868987813131851 -0.9685831634480487 -0.000000020120586438628642
0.3090169924022456 -0.9510565169361233 0.0000000058331074575135325
0.3681246242795293 -0.9297764575418407 -0.00000003403067959053717
0.4257793043393599 -0.904827046454896 0.000000016893584469167902
0.4817536354808619 -0.8763067012758536 0.00000006627230715018146
0.5358267628320934 -0.8443279459030586 -0.00000003574135204835587
0.5877852177254624 -0.8090170194893492 -0.000000022925204012842234
0.6374240004057281 -0.7705132339595194 0.000000034583981620120356
0.6845472267775632 -0.728968513936735 -0.00000012548877993406035
0.7289686091444749 -0.6845471253916486 -0.00000001774618990314794
0.7705131647407768 -0.6374240840767914 0.00000012752433581854153
0.8090169888591777 -0.587785259884278 0.00000002981074848028545
0.8443279347661681 -0.5358267803810235 0.00000006268379696146012
0.8763066846144575 -0.4817536657878348 -0.000000031932081503270046
0.9048270408818491 -0.42577931618268117 -0.00000007249336177066013
0.9297764853558224 -0.36812455402943994 0.000000014033603742801986
0.9510565131573774 -0.3090170040320282 -0.00000003034932896652561
0.9685831647579304 -0.2486898730296513 -0.00000008884130928558297
0.9822872487243647 -0.18738132509274402 0.00000007382562220075481
0.9921146982209289 -0.12533325805222087 0.00000010335682429858933
0.9980267349317513 -0.062790416159374 0.000000014886796962070006
0.9999999999999939 0.0000000008527418490518549 -0.00000010975579114980294
0.9980267335008227 0.06279043890330573 -0.00000008870213225606935
0.9921146996100991 0.12533324705583046 0.0000000701724571153084
0.9822872498918509 0.1873813189725821 -0.0000000018314781723409928
0.968583162166052 0.24868988312436535 -0.00000002886153956503946
0.9510565094499586 0.3090170154422857 0.000000056657703774492945
0.9297765041027951 0.36812450667998836 0.000000012553790794255393
0.9048270503384439 0.4257792960864006 -0.00000002010541930313936
0.8763066614247382 0.48175370796977707 -0.0000000012809503536976962
0.844327899843802 0.53582683540986 0.00000009800477382792611
0.8090169506513492 0.5877853124728384 0.00000001475833117324444
0.7705132855366431 0.6374239380596886 -0.00000007630783010332898
0.7289686610510657 0.6845470701167405 0.00000005235760517727139
0.684547051438406 0.7289686785911885 -0.000000027478087006107072
0.6374240346476852 0.7705132056320975 -0.00000012552813206828985
0.5877853578211463 0.8090169177038672 -0.000000033182060171466115
0.535826738644034 0.8443279612532653 0.000000053664510080465933
0.4817536056968118 0.8763067176497727 0.0000000463845027433246
0.4257793854610684 0.9048270082819112 0.0000000329660373999147
0.36812452836795984 0.9297764955159181 -0.00000007077979802258168
0.30901685673824897 0.9510565610160169 0.0000000012872375658647871
0.2486899723798586 0.9685831392491255 0.00000011942319516477643
0.18738141015284407 0.9822872324982771 -0.00000008581832964130902
0.12533318426963178 0.9921147075418407 -0.00000004736222466828666
0.06279045583424206 0.9980267324356145 0.00000013618193463567723
