# vtk DataFile Version 3.0
Superfluid Helium Vortex Simulation
ASCII
DATASET POLYDATA
POINTS 202 float
0.5 0 1.0000003446518597
0.4989838488774683 0.03139246974833515 1.000341201421139
0.4960570539304871 0.06266657456032082 1.0003463588357546
0.4911436974028849 0.09369067342945132 1.0003446674718468
0.4842915811437909 0.12434494374593036 1.0003446493039823
0.475528258078209 0.15450849716247042 1.000344651841062
0.4648882429436826 0.1840622763421499 1.0003446518615242
0.45241352623304293 0.21288964578255318 1.0003446518597183
0.4381533400219318 0.24087683705085766 1.0003446518597183
0.42216396275100754 0.26791339748949833 1.0003446518597183
0.4045084971874737 0.29389262614623657 1.0003446518597183
0.3852566213878946 0.3187119948743448 1.0003446518597183
0.3644843137107058 0.3422735529643443 1.0003446518597183
0.3422735529643443 0.3644843137107058 1.0003446518597183
0.3187119948743449 0.3852566213878946 1.0003446518597183
0.2938926261462366 0.40450849718747367 1.0003446518597183
0.2679133974894983 0.42216396275100754 1.0003446518597183
0.24087683705085758 0.43815334002193185 1.0003446518597183
0.21288964578253633 0.4524135262330098 1.0003446518597183
0.18406227634233904 0.4648882429441257 1.0003446518597183
0.15450849718747373 0.47552825814757677 1.0003446518597183
0.12434494358242737 0.48429158056431554 1.0003446518597183
0.09369065729286237 0.4911436253643443 1.0003446518597183
0.06266661678215224 0.4960573506572389 1.0003446518597183
0.03139525976465676 0.4990133642141358 1.0003446518597183
0.00000000000000003061616997868383 0.5 1.0003446518597183
-0.0313952597646567 0.4990133642141358 1.0003446518597183
-0.06266661678215207 0.49605735065723894 1.0003446518597183
-0.0936906572928623 0.49114362536434436 1.0003446518597183
-0.12434494358242743 0.48429158056431554 1.0003446518597183
-0.15450849718747356 0.4755282581475768 1.0003446518597183
-0.18406227634233888 0.46488824294412573 1.0003446518597183
-0.21288964578253636 0.45241352623300973 1.0003446518597183
-0.24087683705085772 0.43815334002193174 1.0003446518597183
-0.26791339748949844 0.4221639627510075 1.0003446518597183
-0.2938926261462365 0.4045084971874737 1.0003446518597183
-0.3187119948743449 0.3852566213878946 1.0003446518597183
-0.34227355296434436 0.3644843137107057 1.0003446518597183
-0.36448431371070567 0.3422735529643444 1.0003446518597183
-0.38525662138789457 0.31871199487434493 1.0003446518597183
-0.40450849718747367 0.2938926261462366 1.0003446518597183
-0.4221639627510074 0.2679133974894985 1.0003446518597183
-0.4381533400219318 0.2408768370508576 1.0003446518597183
-0.4524135262330097 0.21288964578253644 1.0003446518597183
-0.4648882429441257 0.18406227634233907 1.0003446518597183
-0.47552825814757677 0.15450849718747375 1.0003446518597183
-0.4842915805643155 0.12434494358242762 1.0003446518597183
-0.49114362536434436 0.09369065729286229 1.0003446518597183
-0.4960573506572389 0.06266661678215227 1.0003446518597183
-0.4990133642141358 0.03139525976465679 1.0003446518597183
-0.5 0.00000000000000006123233995736766 1.0003446518597183
-0.4990133642141358 -0.03139525976465667 1.0003446518597183
-0.49605735065723894 -0.06266661678215214 1.0003446518597183
-0.4911436253643443 -0.09369065729286238 1.0003446518597183
-0.4842915805643156 -0.12434494358242729 1.0003446518597183
-0.4755282581475768 -0.15450849718747364 1.0003446518597183
-0.46488824294412573 -0.18406227634233896 1.0003446518597183
-0.45241352623300984 -0.21288964578253614 1.0003446518597183
-0.43815334002193174 -0.2408768370508577 1.0003446518597183
-0.4221639627510076 -0.2679133974894982 1.0003446518597183
-0.4045084971874739 -0.29389262614623635 1.0003446518597183
-0.3852566213878946 -0.3187119948743448 1.0003446518597183
-0.36448431371070594 -0.3422735529643442 1.0003446518597183
-0.3422735529643443 -0.36448431371070583 1.0003446518597183
-0.31871199487434476 -0.3852566213878947 1.0003446518597183
-0.2938926261462366 -0.40450849718747367 1.0003446518597183
-0.26791339748949816 -0.42216396275100765 1.0003446518597183
-0.24087683705085763 -0.4381533400219318 1.0003446518597183
-0.21288964578253608 -0.4524135262330099 1.0003446518597183
-0.1840622763423389 -0.46488824294412573 1.0003446518597183
-0.15450849718747378 -0.47552825814757677 1.0003446518597183
-0.12434494358242722 -0.4842915805643156 1.0003446518597183
-0.09369065729286231 -0.49114362536434436 1.0003446518597183
-0.0626666167821523 -0.4960573506572389 1.0003446518597183
-0.031395259764656604 -0.4990133642141358 1.0003446518597183
-0.00000000000000009184850993605148 -0.5 1.0003446518597183
0.031395259764656416 -0.4990133642141358 1.0003446518597183
0.06266661678215212 -0.49605735065723894 1.0003446518597183
0.09369065729286213 -0.49114362536434436 1.0003446518597183
0.12434494358242747 -0.48429158056431554 1.0003446518597183
0.15450849718747361 -0.4755282581475768 1.0003446518597183
0.1840622763423387 -0.4648882429441258 1.0003446518597183
0.2128896457825359 -0.45241352623300995 1.0003446518597183
0.24087683705085786 -0.4381533400219317 1.0003446518597183
0.2679133974894984 -0.4221639627510075 1.0003446518597183
0.29389262614623646 -0.4045084971874738 1.0003446518597183
0.31871199487434465 -0.3852566213878948 1.0003446518597183
0.34227355296434403 -0.3644843137107061 1.0003446518597183
0.36448431371070567 -0.3422735529643445 1.0003446518597183
0.3852566213878946 -0.3187119948743448 1.0003446518597183
0.40450849718747367 -0.2938926261462367 1.0003446518597183
0.42216396275100737 -0.26791339748949855 1.0003446518597183
0.43815334002193157 -0.24087683705085805 1.0003446518597183
0.4524135262330428 -0.21288964578255334 1.0003446518597183
0.4648882429436826 -0.18406227634214986 1.0003446518615242
0.475528258078209 -0.15450849716247056 1.000344651841062
0.48429158114379084 -0.12434494374593064 1.0003446493039823
0.4911436974028848 -0.09369067342945137 1.000344667471847
0.49605705393048705 -0.06266657456032101 1.0003463588357546
0.4989838488774683 -0.031392469748335095 1.000341201421139
0.5 0 1.0000003446518597
0.4 0 1.4000003446518596
0.3991740570398756 0.025112744819815586 1.400339292453053
0.3968453048937224 0.05013321152847154 1.4003472872779317
0.392915038823795 0.07495255690336762 1.4003446896943543
0.3874332662059863 0.09947595536112352 1.4003446457318929
0.3804226063105912 0.12360679767514483 1.4003446517891667
0.3719105943531954 0.147249821072973 1.4003446518665048
0.3619308209865701 0.17031171662611183 1.4003446518597686
0.35052267201754544 0.19270146964068613 1.4003446518597182
0.33773117020080606 0.21433071799159867 1.4003446518597182
0.323606797749979 0.23511410091698925 1.4003446518597182
0.30820529711031575 0.2549695958994759 1.4003446518597182
0.29158745096856464 0.27381884237147547 1.4003446518597182
0.27381884237147547 0.29158745096856464 1.4003446518597182
0.25496959589947593 0.30820529711031575 1.4003446518597182
0.2351141009169893 0.32360679774997897 1.4003446518597182
0.21433071799159864 0.33773117020080606 1.4003446518597182
0.19270146964068607 0.3505226720175455 1.4003446518597182
0.17031171662602906 0.36193082098640783 1.4003446518597182
0.14724982107387125 0.37191059435530055 1.4003446518597182
0.12360679774997899 0.3804226065180614 1.4003446518597182
0.0994759548659419 0.38743326445145243 1.4003446518597182
0.0749525258342899 0.39291490029147547 1.4003446518597182
0.050133293425721794 0.3968458805257911 1.4003446518597182
0.02511620781172541 0.39921069137130866 1.4003446518597182
0.000000000000000024492935982947065 0.4 1.4003446518597182
-0.025116207811725362 0.39921069137130866 1.4003446518597182
-0.05013329342572166 0.3968458805257912 1.4003446518597182
-0.07495252583428984 0.3929149002914755 1.4003446518597182
-0.09947595486594195 0.38743326445145243 1.4003446518597182
-0.12360679774997885 0.3804226065180615 1.4003446518597182
-0.1472498210738711 0.3719105943553006 1.4003446518597182
-0.1703117166260291 0.36193082098640783 1.4003446518597182
-0.19270146964068618 0.3505226720175454 1.4003446518597182
-0.21433071799159875 0.337731170200806 1.4003446518597182
-0.23511410091698923 0.323606797749979 1.4003446518597182
-0.25496959589947593 0.30820529711031575 1.4003446518597182
-0.2738188423714755 0.2915874509685646 1.4003446518597182
-0.29158745096856453 0.2738188423714755 1.4003446518597182
-0.3082052971103157 0.25496959589947593 1.4003446518597182
-0.32360679774997897 0.2351141009169893 1.4003446518597182
-0.33773117020080595 0.2143307179915988 1.4003446518597182
-0.35052267201754544 0.1927014696406861 1.4003446518597182
-0.3619308209864078 0.17031171662602917 1.4003446518597182
-0.37191059435530055 0.14724982107387127 1.4003446518597182
-0.3804226065180614 0.12360679774997901 1.4003446518597182
-0.38743326445145243 0.0994759548659421 1.4003446518597182
-0.3929149002914755 0.07495252583428984 1.4003446518597182
-0.3968458805257911 0.050133293425721814 1.4003446518597182
-0.39921069137130866 0.025116207811725435 1.4003446518597182
-0.4 0.00000000000000004898587196589413 1.4003446518597182
-0.39921069137130866 -0.02511620781172534 1.4003446518597182
-0.3968458805257912 -0.05013329342572172 1.4003446518597182
-0.39291490029147547 -0.07495252583428991 1.4003446518597182
-0.3874332644514525 -0.09947595486594184 1.4003446518597182
-0.3804226065180615 -0.12360679774997892 1.4003446518597182
-0.3719105943553006 -0.14724982107387116 1.4003446518597182
-0.3619308209864079 -0.17031171662602893 1.4003446518597182
-0.3505226720175454 -0.19270146964068616 1.4003446518597182
-0.3377311702008061 -0.21433071799159858 1.4003446518597182
-0.32360679774997914 -0.2351141009169891 1.4003446518597182
-0.30820529711031575 -0.2549695958994759 1.4003446518597182
-0.29158745096856475 -0.27381884237147536 1.4003446518597182
-0.27381884237147547 -0.2915874509685647 1.4003446518597182
-0.2549695958994758 -0.30820529711031575 1.4003446518597182
-0.2351141009169893 -0.32360679774997897 1.4003446518597182
-0.21433071799159853 -0.3377311702008061 1.4003446518597182
-0.19270146964068613 -0.35052267201754544 1.4003446518597182
-0.17031171662602887 -0.36193082098640794 1.4003446518597182
-0.14724982107387113 -0.3719105943553006 1.4003446518597182
-0.12360679774997903 -0.3804226065180614 1.4003446518597182
-0.09947595486594178 -0.3874332644514525 1.4003446518597182
-0.07495252583428985 -0.3929149002914755 1.4003446518597182
-0.05013329342572184 -0.3968458805257911 1.4003446518597182
-0.025116207811725286 -0.39921069137130866 1.4003446518597182
-0.00000000000000007347880794884119 -0.4 1.4003446518597182
0.025116207811725133 -0.39921069137130866 1.4003446518597182
0.050133293425721696 -0.3968458805257912 1.4003446518597182
0.07495252583428971 -0.3929149002914755 1.4003446518597182
0.09947595486594198 -0.38743326445145243 1.4003446518597182
0.1236067977499789 -0.3804226065180615 1.4003446518597182
0.14724982107387097 -0.37191059435530066 1.4003446518597182
0.17031171662602873 -0.361930820986408 1.4003446518597182
0.1927014696406863 -0.3505226720175454 1.4003446518597182
0.21433071799159872 -0.337731170200806 1.4003446518597182
0.23511410091698917 -0.323606797749979 1.4003446518597182
0.2549695958994757 -0.30820529711031586 1.4003446518597182
0.27381884237147525 -0.2915874509685649 1.4003446518597182
0.29158745096856453 -0.2738188423714756 1.4003446518597182
0.30820529711031575 -0.2549695958994759 1.4003446518597182
0.32360679774997897 -0.23511410091698937 1.4003446518597182
0.3377311702008059 -0.21433071799159886 1.4003446518597182
0.3505226720175453 -0.19270146964068646 1.4003446518597182
0.36193082098657003 -0.17031171662611197 1.4003446518597686
0.3719105943531954 -0.147249821072973 1.4003446518665048
0.3804226063105912 -0.12360679767514494 1.4003446517891667
0.38743326620598617 -0.09947595536112375 1.400344645731893
0.392915038823795 -0.07495255690336766 1.4003446896943543
0.39684530489372233 -0.0501332115284717 1.4003472872779317
0.3991740570398756 -0.02511274481981554 1.400339292453053
0.4 0 1.4000003446518596
LINES 2 204
101 0 1 2 3 4 5 6 7 8 9 10 11 12 13 14 15 16 17 18 19 20 21 22 23 24 25 26 27 28 29 30 31 32 33 34 35 36 37 38 39 40 41 42 43 44 45 46 47 48 49 50 51 52 53 54 55 56 57 58 59 60 61 62 63 64 65 66 67 68 69 70 71 72 73 74 75 76 77 78 79 80 81 82 83 84 85 86 87 88 89 90 91 92 93 94 95 96 97 98 99 100
101 101 102 103 104 105 106 107 108 109 110 111 112 113 114 115 116 117 118 119 120 121 122 123 124 125 126 127 128 129 130 131 132 133 134 135 136 137 138 139 140 141 142 143 144 145 146 147 148 149 150 151 152 153 154 155 156 157 158 159 160 161 162 163 164 165 166 167 168 169 170 171 172 173 174 175 176 177 178 179 180 181 182 183 184 185 186 187 188 189 190 191 192 193 194 195 196 197 198 199 200 201
POINT_DATA 202
VECTORS tangent float
-0.032350414057445404 0.9994176772783734 0.010851592224781935
-0.06279431527289937 0.9980112765020837 0.005510530291142387
-0.12486384967264709 0.9921738839526936 0.00005520102971695016
-0.1873766216259057 0.9822881455697249 -0.000027225959710693983
-0.24869102652816866 0.968582868589107 -0.00000024893541952770117
-0.3090170034949395 0.9510565133318876 0.0000000407313392882834
-0.3681245515927968 0.9297764863205578 0.00000000029712144271039775
-0.42577929155813465 0.9048270524692844 -0.000000000028760532408283648
-0.48175367410223413 0.8763066800435785 0
-0.5358267949789967 0.8443279255020152 0
-0.5877852522924735 0.8090169943749472 0
-0.63742398974869 0.770513242775789 0
-0.6845471059286886 0.7289686274214116 0
-0.7289686274214112 0.6845471059286891 0
-0.7705132427757893 0.63742398974869 0
-0.8090169943749478 0.5877852522924726 0
-0.844327925502015 0.5358267949789969 0
-0.8763066800438634 0.48175367410171593 0
-0.9048270524660196 0.42577929156507227 0
-0.9297764858882517 0.3681245526846774 0
-0.9510565162951538 0.3090169943749471 0
-0.9685831611286312 0.2486898871648547 0
-0.9822872507286886 0.18738131458572488 0
-0.9921147013144778 0.1253332335643048 0
-0.9980267284282714 0.0627905195293138 0
-1 0 0
-0.9980267284282714 -0.06279051952931304 0
-0.9921147013144779 -0.12533323356430395 0
-0.9822872507286885 -0.18738131458572505 0
-0.9685831611286311 -0.2486898871648551 0
-0.9510565162951535 -0.30901699437494734 0
-0.9297764858882516 -0.36812455268467786 0
-0.9048270524660195 -0.4257792915650726 0
-0.8763066800438638 -0.481753674101715 0
-0.8443279255020151 -0.5358267949789968 0
-0.8090169943749472 -0.5877852522924732 0
-0.7705132427757893 -0.6374239897486896 0
-0.7289686274214112 -0.684547105928689 0
-0.684547105928689 -0.7289686274214112 0
-0.6374239897486901 -0.7705132427757889 0
-0.5877852522924732 -0.8090169943749472 0
-0.5358267949789964 -0.8443279255020153 0
-0.48175367410171505 -0.8763066800438636 0
-0.4257792915650731 -0.9048270524660195 0
-0.3681245526846785 -0.9297764858882512 0
-0.30901699437494734 -0.9510565162951535 0
-0.2486898871648551 -0.968583161128631 0
-0.18738131458572505 -0.9822872507286885 0
-0.12533323356430415 -0.9921147013144778 0
-0.0627905195293138 -0.9980267284282714 0
0 -1 0
0.06279051952931294 -0.9980267284282714 0
0.1253332335643046 -0.9921147013144777 0
0.18738131458572482 -0.9822872507286886 0
0.24868988716485427 -0.9685831611286313 0
0.3090169943749471 -0.9510565162951538 0
0.368124552684678 -0.9297764858882513 0
0.4257792915650733 -0.9048270524660194 0
0.481753674101715 -0.8763066800438638 0
0.5358267949789958 -0.8443279255020155 0
0.5877852522924731 -0.8090169943749475 0
0.6374239897486892 -0.7705132427757898 0
0.6845471059286882 -0.728968627421412 0
0.7289686274214119 -0.6845471059286882 0
0.7705132427757896 -0.6374239897486893 0
0.8090169943749475 -0.5877852522924731 0
0.844327925502015 -0.5358267949789965 0
0.8763066800438638 -0.481753674101715 0
0.9048270524660195 -0.42577929156507255 0
0.9297764858882516 -0.36812455268467753 0
0.9510565162951538 -0.30901699437494706 0
0.968583161128631 -0.2486898871648551 0
0.9822872507286888 -0.18738131458572466 0
0.9921147013144779 -0.12533323356430373 0
0.9980267284282714 -0.06279051952931382 0
1 0 0
0.9980267284282714 0.06279051952931293 0
0.9921147013144778 0.1253332335643037 0
0.9822872507286885 0.18738131458572505 0
0.9685831611286312 0.24868988716485424 0
0.9510565162951536 0.30901699437494756 0
0.9297764858882516 0.36812455268467753 0
0.9048270524660197 0.4257792915650722 0
0.8763066800438636 0.481753674101715 0
0.844327925502015 0.535826794978997 0
0.8090169943749477 0.5877852522924728 0
0.7705132427757901 0.6374239897486886 0
0.728968627421412 0.6845471059286882 0
0.6845471059286883 0.7289686274214119 0
0.6374239897486901 0.7705132427757889 0
0.5877852522924734 0.8090169943749473 0
0.5358267949789967 0.8443279255020151 0
0.48175367410223435 0.8763066800435783 0
0.425779291558135 0.9048270524692842 0.000000000028760532408283432
0.36812455159279817 0.9297764863205572 -0.00000000029712144271039744
0.3090170034949401 0.9510565133318873 -0.000000040731339288283595
0.2486910265281675 0.9685828685891075 0.00000024893542306397674
0.18737662162590546 0.9822881455697249 0.00002722595971069395
0.12486384967264776 0.9921738839526933 -0.000055201029720486396
0.06279431527290005 0.9980112765020834 -0.005510530291142368
0.03235041405744546 0.9994176772783734 -0.010851592224781954
-0.032868629570147787 0.9993686571864435 0.013488521918469921
-0.06280053802239158 0.9980022001217422 0.0069065893362780855
-0.12460397839195551 0.9922065495771871 0.0001074478001590542
-0.18736992168667252 0.9822894225643423 -0.00005258651083380152
-0.24869262764581715 0.9685824574882871 -0.0000007545960892284881
-0.3090170289082053 0.9510565050746093 0.0000001221245652780219
-0.36812454860091837 0.9297764875051262 0.000000001405506142777355
-0.4257792915238727 0.9048270524854067 -0.00000000013510342317226095
-0.481753674104891 0.8763066800421176 -0.0000000000010034183045428852
-0.5358267949789961 0.8443279255020154 0
-0.5877852522924731 0.8090169943749475 0
-0.63742398974869 0.770513242775789 0
-0.6845471059286888 0.7289686274214113 0
-0.7289686274214108 0.6845471059286894 0
-0.770513242775789 0.6374239897486899 0
-0.809016994374948 0.5877852522924724 0
-0.8443279255020151 0.5358267949789968 0
-0.8763066800438637 0.4817536741017152 0
-0.9048270524660197 0.4257792915650721 0
-0.9297764858882515 0.3681245526846776 0
-0.9510565162951538 0.3090169943749469 0
-0.9685831611286311 0.2486898871648549 0
-0.9822872507286886 0.18738131458572505 0
-0.9921147013144777 0.12533323356430504 0
-0.9980267284282717 0.06279051952931404 0
-1 0 0
-0.9980267284282717 -0.06279051952931303 0
-0.9921147013144778 -0.12533323356430395 0
-0.9822872507286885 -0.1873813145857255 0
-0.9685831611286311 -0.2486898871648553 0
-0.9510565162951536 -0.30901699437494695 0
-0.9297764858882516 -0.3681245526846774 0
-0.9048270524660194 -0.42577929156507294 0
-0.8763066800438636 -0.4817536741017153 0
-0.8443279255020155 -0.5358267949789961 0
-0.8090169943749478 -0.5877852522924727 0
-0.770513242775789 -0.6374239897486897 0
-0.7289686274214104 -0.68454710592869 0
-0.6845471059286888 -0.7289686274214116 0
-0.6374239897486906 -0.7705132427757885 0
-0.5877852522924732 -0.8090169943749473 0
-0.5358267949789961 -0.8443279255020153 0
-0.4817536741017156 -0.8763066800438635 0
-0.42577929156507305 -0.9048270524660192 0
-0.368124552684678 -0.9297764858882513 0
-0.3090169943749479 -0.9510565162951534 0
-0.24868988716485552 -0.9685831611286309 0
-0.18738131458572443 -0.9822872507286888 0
-0.12533323356430418 -0.992114701314478 0
-0.06279051952931404 -0.9980267284282717 0
0 -1 0
0.06279051952931294 -0.9980267284282717 0
0.12533323356430484 -0.9921147013144777 0
0.18738131458572502 -0.9822872507286886 0
0.24868988716485424 -0.9685831611286312 0
0.309016994374947 -0.9510565162951538 0
0.36812455268467803 -0.9297764858882512 0
0.4257792915650736 -0.9048270524660191 0
0.4817536741017145 -0.876306680043864 0
0.5358267949789954 -0.8443279255020157 0
0.587785252292473 -0.8090169943749475 0
0.6374239897486895 -0.7705132427757895 0
0.6845471059286882 -0.7289686274214118 0
0.7289686274214118 -0.6845471059286884 0
0.7705132427757896 -0.6374239897486892 0
0.8090169943749475 -0.587785252292473 0
0.8443279255020152 -0.5358267949789964 0
0.8763066800438636 -0.4817536741017153 0
0.9048270524660195 -0.42577929156507266 0
0.9297764858882517 -0.3681245526846773 0
0.9510565162951538 -0.30901699437494684 0
0.9685831611286309 -0.24868988716485552 0
0.9822872507286885 -0.1873813145857246 0
0.9921147013144779 -0.12533323356430373 0
0.9980267284282717 -0.06279051952931404 0
1 0 0
0.9980267284282717 0.06279051952931293 0
0.9921147013144779 0.1253332335643037 0
0.9822872507286885 0.18738131458572552 0
0.9685831611286312 0.2486898871648544 0
0.9510565162951538 0.30901699437494695 0
0.9297764858882516 0.36812455268467736 0
0.9048270524660199 0.42577929156507194 0
0.8763066800438637 0.4817536741017151 0
0.8443279255020144 0.5358267949789975 0
0.8090169943749475 0.587785252292473 0
0.7705132427757906 0.6374239897486881 0
0.7289686274214118 0.6845471059286882 0
0.6845471059286884 0.7289686274214117 0
0.6374239897486906 0.7705132427757885 0
0.5877852522924728 0.8090169943749477 0
0.5358267949789965 0.8443279255020151 0
0.4817536741048922 0.876306680042117 0.000000000001003418304542883
0.4257792915238729 0.9048270524854066 0.00000000013510342317225994
0.36812454860091914 0.9297764875051259 -0.0000000014055061427773538
0.30901702890820465 0.9510565050746096 -0.00000012212456085767754
0.24869262764581684 0.9685824574882873 0.0000007545960892284872
0.18736992168667335 0.9822894225643422 0.0000525865108293811
0.1246039783919553 0.9922065495771871 -0.00010744780015905401
0.06280053802239248 0.9980022001217422 -0.006906589336278064
0.03286862957014785 0.9993686571864435 -0.013488521918469946
